version 2
run General-0-20110617-16:59:08-10708
attr configname General
attr datetime 20110617-16:59:08
attr experiment General
attr inifile /home/travis/sim/inet/src/httptools/videocomponents/client/omnetpp.ini
attr iterationvars ""
attr iterationvars2 $repetition=0
attr measurement ""
attr network TestNetwork
attr processid 10708
attr repetition 0
attr replication #0
attr resultdir results
attr runnumber 0
attr seedset 0

vector 54  TestNetwork.client.tcp  5_tcpRcvQueueBytes  ETV
vector 42  TestNetwork.client.tcp  "5_advertised window"  ETV
vector 41  TestNetwork.client.tcp  "5_receive window"  ETV
vector 44  TestNetwork.client.tcp  "5_sent ack"  ETV
vector 0  TestNetwork.client.ppp[0].queue  queuelength:vector  ETV
attr source  qlen
attr title  "queue length, vector"
vector 21  TestNetwork.server.tcp  "4_rcvd seq"  ETV
vector 22  TestNetwork.server.tcp  "4_rcvd ack"  ETV
21	31	14.602408	250000
22	31	14.602408	0
vector 90  TestNetwork.server.tcp  "6_advertised window"  ETV
vector 88  TestNetwork.server.tcp  "6_send window"  ETV
vector 102  TestNetwork.server.tcp  6_tcpRcvQueueBytes  ETV
vector 89  TestNetwork.server.tcp  "6_receive window"  ETV
vector 92  TestNetwork.server.tcp  "6_sent ack"  ETV
vector 6  TestNetwork.router.ppp[1].queue  queuelength:vector  ETV
attr source  qlen
attr title  "queue length, vector"
vector 93  TestNetwork.server.tcp  "6_rcvd seq"  ETV
vector 94  TestNetwork.server.tcp  "6_rcvd ack"  ETV
vector 45  TestNetwork.client.tcp  "5_rcvd seq"  ETV
vector 46  TestNetwork.client.tcp  "5_rcvd ack"  ETV
vector 40  TestNetwork.client.tcp  "5_send window"  ETV
vector 43  TestNetwork.client.tcp  "5_sent seq"  ETV
vector 47  TestNetwork.client.tcp  "5_unacked bytes"  ETV
vector 63  TestNetwork.client.tcp  numRTOs  ETV
vector 58  TestNetwork.client.tcp  ssthresh  ETV
vector 57  TestNetwork.client.tcp  cwnd  ETV
vector 95  TestNetwork.server.tcp  "6_unacked bytes"  ETV
vector 33  TestNetwork.server.tcp  cwnd  ETV
vector 96  TestNetwork.server.tcp  "6_rcvd dupAcks"  ETV
vector 48  TestNetwork.client.tcp  "5_rcvd dupAcks"  ETV
vector 104  TestNetwork.server.tcp  6_goodput  ETV
vector 91  TestNetwork.server.tcp  "6_sent seq"  ETV
vector 2  TestNetwork.server.ppp[0].queue  queuelength:vector  ETV
attr source  qlen
attr title  "queue length, vector"
vector 39  TestNetwork.server.tcp  numRTOs  ETV
vector 34  TestNetwork.server.tcp  ssthresh  ETV
vector 15  TestNetwork.router.ppp[1].queue  drops  ETV
vector 7  TestNetwork.router.ppp[1].queue  queuedrops:vector  ETV
attr source  qdrop
attr title  "packets dropped by queue, vector"
vector 56  TestNetwork.client.tcp  5_goodput  ETV
33	220	67.935709333333	2904
33	287	83.735717333333	1452
33	298	89.735717333333	1452
33	337	101.735717333333	1452
33	403	125.735717333333	1452
33	488	173.735717333333	1452
33	532	269.735717333333	1452
33	543	461.735717333333	1452
33	577	545.007191999998	2904
33	598	785.007191999998	1452
33	632	944.740525333331	2904
33	653	1184.740525333331	1452
33	686	1424.740525333331	1452
33	697	1664.740525333331	1452
33	752	1904.740525333331	1452
33	774	2144.740525333331	1452
33	818	2384.740525333331	1452
33	895	2624.740525333331	1452
33	906	2864.740525333331	1452
33	939	3104.740525333331	1452
33	950	3344.740525333331	1452
33	983	3584.740525333331	1452
33	1017	3793.007191999994	2904
33	1038	4033.007191999994	1452
33	1071	4273.007191999994	1452
33	1082	4513.007191999994	1452
33	1115	4753.007191999994	1452
33	1148	4993.007191999994	1452
33	1159	5233.007191999994	1452
33	1192	5473.007191999994	1452
33	1203	5713.007191999994	1452
33	1236	5953.007191999994	1452
33	1269	6193.007191999994	1452
33	1280	6433.007191999994	1452
33	1313	6673.007191999994	1452
34	287	83.735717333333	2904
34	298	89.735717333333	2904
34	337	101.735717333333	2904
34	403	125.735717333333	2904
34	488	173.735717333333	2904
34	532	269.735717333333	2904
34	543	461.735717333333	2904
34	598	785.007191999998	2904
34	653	1184.740525333331	2904
34	686	1424.740525333331	2904
34	697	1664.740525333331	2904
34	752	1904.740525333331	2904
34	774	2144.740525333331	2904
34	818	2384.740525333331	2904
34	895	2624.740525333331	2904
34	906	2864.740525333331	2904
34	939	3104.740525333331	2904
34	950	3344.740525333331	2904
34	983	3584.740525333331	2904
34	1038	4033.007191999994	2904
34	1071	4273.007191999994	2904
34	1082	4513.007191999994	2904
34	1115	4753.007191999994	2904
34	1148	4993.007191999994	2904
34	1159	5233.007191999994	2904
34	1192	5473.007191999994	2904
34	1203	5713.007191999994	2904
34	1236	5953.007191999994	2904
34	1269	6193.007191999994	2904
34	1280	6433.007191999994	2904
34	1313	6673.007191999994	2904
39	287	83.735717333333	1
39	298	89.735717333333	2
39	337	101.735717333333	3
39	403	125.735717333333	4
39	488	173.735717333333	5
39	532	269.735717333333	6
39	543	461.735717333333	7
39	598	785.007191999998	8
39	653	1184.740525333331	9
39	686	1424.740525333331	10
39	697	1664.740525333331	11
39	752	1904.740525333331	12
39	774	2144.740525333331	13
39	818	2384.740525333331	14
39	895	2624.740525333331	15
39	906	2864.740525333331	16
39	939	3104.740525333331	17
39	950	3344.740525333331	18
39	983	3584.740525333331	19
39	1038	4033.007191999994	20
39	1071	4273.007191999994	21
39	1082	4513.007191999994	22
39	1115	4753.007191999994	23
39	1148	4993.007191999994	24
39	1159	5233.007191999994	25
39	1192	5473.007191999994	26
39	1203	5713.007191999994	27
39	1236	5953.007191999994	28
39	1269	6193.007191999994	29
39	1280	6433.007191999994	30
39	1313	6673.007191999994	31
88	31	14.602408	20328
88	220	67.935709333333	20328
88	387	118.869042666666	20328
88	453	144.202375999999	20328
88	487	169.535709333332	20328
88	510	182.069042666665	20328
88	577	545.007191999998	20328
88	632	944.740525333331	20328
88	685	1344.473858666664	20328
88	740	1744.207191999997	20328
88	751	1756.74052533333	20328
88	806	2156.473858666663	20328
88	817	2169.007191999996	20328
88	861	2568.740525333329	20328
88	883	2581.273858666662	20328
88	894	2593.807191999995	20328
88	938	2993.540525333328	20328
88	982	3393.273858666661	20328
88	1017	3793.007191999994	20328
88	1070	4192.740525333327	20328
88	1114	4592.47385866666	20328
88	1147	4992.207191999993	20328
88	1191	5391.940525333326	20328
88	1235	5791.673858666659	20328
88	1268	6191.407191999992	20328
88	1312	6591.140525333325	20328
89	31	14.602408	20328
89	43	17.602408	20328
89	59	23.602408	20328
89	81	28.202408	20328
89	113	35.602408	20328
89	140	41.802408	20328
89	177	55.402408	20328
89	198	59.602408	20328
89	244	80.735717333333	20328
89	247	80.735717333333	20328
89	247	80.735717333333	20328
89	287	83.735717333333	20328
89	298	89.735717333333	20328
89	320	93.535717333333	20328
89	337	101.735717333333	20328
89	359	106.335717333333	20328
89	403	125.735717333333	20328
89	425	131.669050666666	20328
89	465	157.002383999999	20328
89	488	173.735717333333	20328
89	521	194.869050666665	20328
89	532	269.735717333333	20328
89	543	461.735717333333	20328
89	577	545.007191999998	20328
89	577	545.007191999998	20328
89	598	785.007191999998	20328
89	632	944.740525333331	20328
89	632	944.740525333331	20328
89	653	1184.740525333331	20328
89	686	1424.740525333331	20328
89	697	1664.740525333331	20328
89	752	1904.740525333331	20328
89	774	2144.740525333331	20328
89	818	2384.740525333331	20328
89	895	2624.740525333331	20328
89	906	2864.740525333331	20328
89	939	3104.740525333331	20328
89	950	3344.740525333331	20328
89	983	3584.740525333331	20328
89	1017	3793.007191999994	20328
89	1017	3793.007191999994	20328
89	1038	4033.007191999994	20328
89	1071	4273.007191999994	20328
89	1082	4513.007191999994	20328
89	1115	4753.007191999994	20328
89	1148	4993.007191999994	20328
89	1159	5233.007191999994	20328
89	1192	5473.007191999994	20328
89	1203	5713.007191999994	20328
89	1236	5953.007191999994	20328
89	1269	6193.007191999994	20328
89	1280	6433.007191999994	20328
89	1313	6673.007191999994	20328
90	31	14.602408	270329
90	31	14.602408	270329
90	43	17.602408	270329
90	59	23.602408	270329
90	81	28.202408	270329
90	113	35.602408	270329
90	140	41.802408	270329
90	177	55.402408	270329
90	198	59.602408	270329
90	244	80.735717333333	270330
90	247	80.735717333333	270330
90	247	80.735717333333	270330
90	287	83.735717333333	270330
90	298	89.735717333333	270330
90	320	93.535717333333	270330
90	337	101.735717333333	270330
90	359	106.335717333333	270330
90	403	125.735717333333	270330
90	425	131.669050666666	270330
90	465	157.002383999999	270330
90	488	173.735717333333	270330
90	521	194.869050666665	270330
90	532	269.735717333333	270330
90	543	461.735717333333	270330
90	577	545.007191999998	270330
90	577	545.007191999998	270330
90	598	785.007191999998	270330
90	632	944.740525333331	270330
90	632	944.740525333331	270330
90	653	1184.740525333331	270330
90	686	1424.740525333331	270330
90	697	1664.740525333331	270330
90	752	1904.740525333331	270330
90	774	2144.740525333331	270330
90	818	2384.740525333331	270330
90	895	2624.740525333331	270330
90	906	2864.740525333331	270330
90	939	3104.740525333331	270330
90	950	3344.740525333331	270330
90	983	3584.740525333331	270330
90	1017	3793.007191999994	270330
90	1017	3793.007191999994	270330
90	1038	4033.007191999994	270330
90	1071	4273.007191999994	270330
90	1082	4513.007191999994	270330
90	1115	4753.007191999994	270330
90	1148	4993.007191999994	270330
90	1159	5233.007191999994	270330
90	1192	5473.007191999994	270330
90	1203	5713.007191999994	270330
90	1236	5953.007191999994	270330
90	1269	6193.007191999994	270330
90	1280	6433.007191999994	270330
90	1313	6673.007191999994	270330
91	247	80.735717333333	3650603
91	247	80.735717333333	3652055
91	287	83.735717333333	3650603
91	298	89.735717333333	3650603
91	337	101.735717333333	3650603
91	403	125.735717333333	3650603
91	488	173.735717333333	3650603
91	532	269.735717333333	3650603
91	543	461.735717333333	3650603
91	577	545.007191999998	3652055
91	577	545.007191999998	3653507
91	598	785.007191999998	3652055
91	632	944.740525333331	3653507
91	632	944.740525333331	3654959
91	653	1184.740525333331	3653507
91	686	1424.740525333331	3653507
91	697	1664.740525333331	3653507
91	752	1904.740525333331	3653507
91	774	2144.740525333331	3653507
91	818	2384.740525333331	3653507
91	895	2624.740525333331	3653507
91	906	2864.740525333331	3653507
91	939	3104.740525333331	3653507
91	950	3344.740525333331	3653507
91	983	3584.740525333331	3653507
91	1017	3793.007191999994	3654959
91	1017	3793.007191999994	3656411
91	1038	4033.007191999994	3654959
91	1071	4273.007191999994	3654959
91	1082	4513.007191999994	3654959
91	1115	4753.007191999994	3654959
91	1148	4993.007191999994	3654959
91	1159	5233.007191999994	3654959
91	1192	5473.007191999994	3654959
91	1203	5713.007191999994	3654959
91	1236	5953.007191999994	3654959
91	1269	6193.007191999994	3654959
91	1280	6433.007191999994	3654959
91	1313	6673.007191999994	3654959
92	31	14.602408	250001
92	43	17.602408	250001
92	59	23.602408	250001
92	81	28.202408	250001
92	113	35.602408	250001
92	140	41.802408	250001
92	177	55.402408	250001
92	198	59.602408	250001
92	244	80.735717333333	250002
92	247	80.735717333333	250002
92	247	80.735717333333	250002
92	287	83.735717333333	250002
92	298	89.735717333333	250002
92	320	93.535717333333	250002
92	337	101.735717333333	250002
92	359	106.335717333333	250002
92	403	125.735717333333	250002
92	425	131.669050666666	250002
92	465	157.002383999999	250002
92	488	173.735717333333	250002
92	521	194.869050666665	250002
92	532	269.735717333333	250002
92	543	461.735717333333	250002
92	577	545.007191999998	250002
92	577	545.007191999998	250002
92	598	785.007191999998	250002
92	632	944.740525333331	250002
92	632	944.740525333331	250002
92	653	1184.740525333331	250002
92	686	1424.740525333331	250002
92	697	1664.740525333331	250002
92	752	1904.740525333331	250002
92	774	2144.740525333331	250002
92	818	2384.740525333331	250002
92	895	2624.740525333331	250002
92	906	2864.740525333331	250002
92	939	3104.740525333331	250002
92	950	3344.740525333331	250002
92	983	3584.740525333331	250002
92	1017	3793.007191999994	250002
92	1017	3793.007191999994	250002
92	1038	4033.007191999994	250002
92	1071	4273.007191999994	250002
92	1082	4513.007191999994	250002
92	1115	4753.007191999994	250002
92	1148	4993.007191999994	250002
92	1159	5233.007191999994	250002
92	1192	5473.007191999994	250002
92	1203	5713.007191999994	250002
92	1236	5953.007191999994	250002
92	1269	6193.007191999994	250002
92	1280	6433.007191999994	250002
92	1313	6673.007191999994	250002
93	81	28.202408	250000
93	140	41.802408	250000
93	177	55.402408	250000
93	220	67.935709333333	250001
93	244	80.735717333333	250001
93	320	93.535717333333	250001
93	359	106.335717333333	250001
93	387	118.869042666666	250002
93	425	131.669050666666	250001
93	453	144.202375999999	250002
93	465	157.002383999999	250001
93	487	169.535709333332	250002
93	510	182.069042666665	250002
93	521	194.869050666665	250001
93	577	545.007191999998	250002
93	632	944.740525333331	250002
93	685	1344.473858666664	250002
93	740	1744.207191999997	250002
93	751	1756.74052533333	250002
93	806	2156.473858666663	250002
93	817	2169.007191999996	250002
93	861	2568.740525333329	250002
93	883	2581.273858666662	250002
93	894	2593.807191999995	250002
93	938	2993.540525333328	250002
93	982	3393.273858666661	250002
93	1017	3793.007191999994	250002
93	1070	4192.740525333327	250002
93	1114	4592.47385866666	250002
93	1147	4992.207191999993	250002
93	1191	5391.940525333326	250002
93	1235	5791.673858666659	250002
93	1268	6191.407191999992	250002
93	1312	6591.140525333325	250002
94	81	28.202408	0
94	140	41.802408	0
94	177	55.402408	0
94	220	67.935709333333	3650603
94	244	80.735717333333	3650603
94	320	93.535717333333	3650603
94	359	106.335717333333	3650603
94	387	118.869042666666	3650603
94	425	131.669050666666	3650603
94	453	144.202375999999	3650603
94	465	157.002383999999	3650603
94	487	169.535709333332	3650603
94	510	182.069042666665	3650603
94	521	194.869050666665	3650603
94	577	545.007191999998	3652055
94	632	944.740525333331	3653507
94	685	1344.473858666664	3653507
94	740	1744.207191999997	3653507
94	751	1756.74052533333	3653507
94	806	2156.473858666663	3653507
94	817	2169.007191999996	3653507
94	861	2568.740525333329	3653507
94	883	2581.273858666662	3653507
94	894	2593.807191999995	3653507
94	938	2993.540525333328	3653507
94	982	3393.273858666661	3653507
94	1017	3793.007191999994	3654959
94	1070	4192.740525333327	3654959
94	1114	4592.47385866666	3654959
94	1147	4992.207191999993	3654959
94	1191	5391.940525333326	3654959
94	1235	5791.673858666659	3654959
94	1268	6191.407191999992	3654959
94	1312	6591.140525333325	3654959
95	220	67.935709333333	0
95	247	80.735717333333	2904
95	577	545.007191999998	1452
95	577	545.007191999998	2904
95	632	944.740525333331	1452
95	632	944.740525333331	2904
95	1017	3793.007191999994	1452
95	1017	3793.007191999994	2904
96	220	67.935709333333	0
96	244	80.735717333333	0
96	387	118.869042666666	1
96	453	144.202375999999	2
96	487	169.535709333332	3
96	510	182.069042666665	4
96	577	545.007191999998	0
96	632	944.740525333331	0
96	685	1344.473858666664	1
96	740	1744.207191999997	2
96	751	1756.74052533333	3
96	806	2156.473858666663	4
96	817	2169.007191999996	5
96	861	2568.740525333329	6
96	883	2581.273858666662	7
96	894	2593.807191999995	8
96	938	2993.540525333328	9
96	982	3393.273858666661	10
96	1017	3793.007191999994	0
96	1070	4192.740525333327	1
96	1114	4592.47385866666	2
96	1147	4992.207191999993	3
96	1191	5391.940525333326	4
96	1235	5791.673858666659	5
96	1268	6191.407191999992	6
96	1312	6591.140525333325	7
102	31	14.602408	0
102	43	17.602408	0
102	59	23.602408	0
102	81	28.202408	0
102	113	35.602408	0
102	140	41.802408	0
102	177	55.402408	0
102	198	59.602408	0
102	244	80.735717333333	0
102	244	80.735717333333	0
102	247	80.735717333333	0
102	247	80.735717333333	0
102	287	83.735717333333	0
102	298	89.735717333333	0
102	320	93.535717333333	0
102	337	101.735717333333	0
102	359	106.335717333333	0
102	403	125.735717333333	0
102	425	131.669050666666	0
102	465	157.002383999999	0
102	488	173.735717333333	0
102	521	194.869050666665	0
102	532	269.735717333333	0
102	543	461.735717333333	0
102	577	545.007191999998	0
102	577	545.007191999998	0
102	598	785.007191999998	0
102	632	944.740525333331	0
102	632	944.740525333331	0
102	653	1184.740525333331	0
102	686	1424.740525333331	0
102	697	1664.740525333331	0
102	752	1904.740525333331	0
102	774	2144.740525333331	0
102	818	2384.740525333331	0
102	895	2624.740525333331	0
102	906	2864.740525333331	0
102	939	3104.740525333331	0
102	950	3344.740525333331	0
102	983	3584.740525333331	0
102	1017	3793.007191999994	0
102	1017	3793.007191999994	0
102	1038	4033.007191999994	0
102	1071	4273.007191999994	0
102	1082	4513.007191999994	0
102	1115	4753.007191999994	0
102	1148	4993.007191999994	0
102	1159	5233.007191999994	0
102	1192	5473.007191999994	0
102	1203	5713.007191999994	0
102	1236	5953.007191999994	0
102	1269	6193.007191999994	0
102	1280	6433.007191999994	0
102	1313	6673.007191999994	0
104	244	80.735717333333	1
vector 69  TestNetwork.server.tcp  "4_rcvd seq"  ETV
vector 70  TestNetwork.server.tcp  "4_rcvd ack"  ETV
57	108	31.204816	1452
57	124	37.204816	1452
57	161	49.204816	1452
57	228	73.204816	1452
57	398	121.204816	1452
57	441	132.738149333332	2904
58	108	31.204816	2904
58	124	37.204816	2904
58	161	49.204816	2904
58	228	73.204816	2904
58	398	121.204816	2904
63	108	31.204816	1
63	124	37.204816	2
63	161	49.204816	3
63	228	73.204816	4
63	398	121.204816	5
40	97	28.204816	20328
40	227	67.938149333333	20328
40	336	94.071482666666	20328
40	375	106.604815999999	20328
40	441	132.738149333332	20328
41	4	1	20328
41	10	4	20328
41	15	10	20328
41	54	22	20328
41	97	28.204816	20328
41	101	28.204816	20328
41	108	31.204816	20328
41	124	37.204816	20328
41	156	41.804816	20328
41	161	49.204816	20328
41	193	55.404816	20328
41	228	73.204816	20328
41	282	81.538149333333	20328
41	393	120.204815999999	20328
41	398	121.204816	20328
41	559	532.471482666665	20328
41	614	932.204815999998	20328
41	669	1331.938149333331	20328
41	713	1731.671482666664	20328
41	724	1744.204815999997	20328
41	768	2143.93814933333	20328
41	790	2156.471482666663	20328
41	834	2556.204815999996	20328
41	845	2568.738149333329	20328
41	867	2581.271482666662	20328
41	922	2981.004815999995	20328
41	966	3380.738149333328	20328
41	999	3780.471482666661	20328
41	1054	4180.204815999994	20328
41	1098	4579.938149333327	20328
41	1131	4979.67148266666	20328
41	1175	5379.404815999993	20328
41	1219	5779.138149333326	20328
41	1252	6178.871482666659	20328
41	1296	6578.604815999992	20328
41	1331	6978.338149333325	20328
41	1363	7378.071482666658	20328
41	1395	7777.804815999991	20328
41	1429	8177.538149333324	20328
41	1463	8577.271482666657	20328
41	1495	8977.00481599999	20328
41	1527	9376.738149333323	20328
41	1559	9776.471482666656	20328
41	1591	10176.204815999989	20328
41	1623	10575.938149333322	20328
41	1655	10975.671482666655	20328
42	4	1	20328
42	10	4	20328
42	15	10	20328
42	54	22	20328
42	97	28.204816	3670931
42	97	28.204816	3670931
42	101	28.204816	3670931
42	108	31.204816	3670931
42	124	37.204816	3670931
42	156	41.804816	3670931
42	161	49.204816	3670931
42	193	55.404816	3670931
42	228	73.204816	3670931
42	282	81.538149333333	3670931
42	393	120.204815999999	3670931
42	398	121.204816	3670931
42	559	532.471482666665	3672383
42	614	932.204815999998	3673835
42	669	1331.938149333331	3673835
42	713	1731.671482666664	3673835
42	724	1744.204815999997	3673835
42	768	2143.93814933333	3673835
42	790	2156.471482666663	3673835
42	834	2556.204815999996	3673835
42	845	2568.738149333329	3673835
42	867	2581.271482666662	3673835
42	922	2981.004815999995	3673835
42	966	3380.738149333328	3673835
42	999	3780.471482666661	3675287
42	1054	4180.204815999994	3675287
42	1098	4579.938149333327	3675287
42	1131	4979.67148266666	3675287
42	1175	5379.404815999993	3675287
42	1219	5779.138149333326	3675287
42	1252	6178.871482666659	3675287
42	1296	6578.604815999992	3675287
42	1331	6978.338149333325	3675287
42	1363	7378.071482666658	3675287
42	1395	7777.804815999991	3676739
42	1429	8177.538149333324	3678191
42	1463	8577.271482666657	3678191
42	1495	8977.00481599999	3678191
42	1527	9376.738149333323	3678191
42	1559	9776.471482666656	3678191
42	1591	10176.204815999989	3678191
42	1623	10575.938149333322	3678191
42	1655	10975.671482666655	3678191
43	101	28.204816	250001
43	108	31.204816	250001
43	124	37.204816	250001
43	161	49.204816	250001
43	228	73.204816	250001
43	398	121.204816	250001
44	4	1	0
44	10	4	0
44	15	10	0
44	54	22	0
44	97	28.204816	3650603
44	101	28.204816	3650603
44	108	31.204816	3650603
44	124	37.204816	3650603
44	156	41.804816	3650603
44	161	49.204816	3650603
44	193	55.404816	3650603
44	228	73.204816	3650603
44	282	81.538149333333	3650603
44	393	120.204815999999	3650603
44	398	121.204816	3650603
44	559	532.471482666665	3652055
44	614	932.204815999998	3653507
44	669	1331.938149333331	3653507
44	713	1731.671482666664	3653507
44	724	1744.204815999997	3653507
44	768	2143.93814933333	3653507
44	790	2156.471482666663	3653507
44	834	2556.204815999996	3653507
44	845	2568.738149333329	3653507
44	867	2581.271482666662	3653507
44	922	2981.004815999995	3653507
44	966	3380.738149333328	3653507
44	999	3780.471482666661	3654959
44	1054	4180.204815999994	3654959
44	1098	4579.938149333327	3654959
44	1131	4979.67148266666	3654959
44	1175	5379.404815999993	3654959
44	1219	5779.138149333326	3654959
44	1252	6178.871482666659	3654959
44	1296	6578.604815999992	3654959
44	1331	6978.338149333325	3654959
44	1363	7378.071482666658	3654959
44	1395	7777.804815999991	3656411
44	1429	8177.538149333324	3657863
44	1463	8577.271482666657	3657863
44	1495	8977.00481599999	3657863
44	1527	9376.738149333323	3657863
44	1559	9776.471482666656	3657863
44	1591	10176.204815999989	3657863
44	1623	10575.938149333322	3657863
44	1655	10975.671482666655	3657863
45	97	28.204816	3650602
45	156	41.804816	3650602
45	193	55.404816	3650602
45	227	67.938149333333	3650603
45	282	81.538149333333	3650602
45	336	94.071482666666	3650603
45	375	106.604815999999	3650603
45	393	120.204815999999	3650602
45	441	132.738149333332	3650603
45	559	532.471482666665	3650603
45	614	932.204815999998	3652055
45	669	1331.938149333331	3650603
45	713	1731.671482666664	3650603
45	724	1744.204815999997	3652055
45	768	2143.93814933333	3650603
45	790	2156.471482666663	3652055
45	834	2556.204815999996	3650603
45	845	2568.738149333329	3652055
45	867	2581.271482666662	3652055
45	922	2981.004815999995	3650603
45	966	3380.738149333328	3652055
45	999	3780.471482666661	3653507
45	1054	4180.204815999994	3653507
45	1098	4579.938149333327	3653507
45	1131	4979.67148266666	3653507
45	1175	5379.404815999993	3653507
45	1219	5779.138149333326	3653507
45	1252	6178.871482666659	3653507
45	1296	6578.604815999992	3653507
45	1331	6978.338149333325	3653507
45	1363	7378.071482666658	3653507
45	1395	7777.804815999991	3654959
45	1429	8177.538149333324	3656411
45	1463	8577.271482666657	3654959
45	1495	8977.00481599999	3654959
45	1527	9376.738149333323	3654959
45	1559	9776.471482666656	3654959
45	1591	10176.204815999989	3654959
45	1623	10575.938149333322	3654959
45	1655	10975.671482666655	3654959
45	1666	10982.871482666655	3654959
45	1693	10990.071482666655	3654959
45	1699	10997.271482666655	3656411
45	1705	11004.471482666655	3657863
46	97	28.204816	250001
46	156	41.804816	250001
46	193	55.404816	250001
46	227	67.938149333333	250001
46	282	81.538149333333	250001
46	336	94.071482666666	250001
46	375	106.604815999999	250001
46	393	120.204815999999	250001
46	441	132.738149333332	250002
46	559	532.471482666665	250002
46	614	932.204815999998	250002
46	669	1331.938149333331	250002
46	713	1731.671482666664	250002
46	724	1744.204815999997	250002
46	768	2143.93814933333	250002
46	790	2156.471482666663	250002
46	834	2556.204815999996	250002
46	845	2568.738149333329	250002
46	867	2581.271482666662	250002
46	922	2981.004815999995	250002
46	966	3380.738149333328	250002
46	999	3780.471482666661	250002
46	1054	4180.204815999994	250002
46	1098	4579.938149333327	250002
46	1131	4979.67148266666	250002
46	1175	5379.404815999993	250002
46	1219	5779.138149333326	250002
46	1252	6178.871482666659	250002
46	1296	6578.604815999992	250002
46	1331	6978.338149333325	250002
46	1363	7378.071482666658	250002
46	1395	7777.804815999991	250002
46	1429	8177.538149333324	250002
46	1463	8577.271482666657	250002
46	1495	8977.00481599999	250002
46	1527	9376.738149333323	250002
46	1559	9776.471482666656	250002
46	1591	10176.204815999989	250002
46	1623	10575.938149333322	250002
46	1655	10975.671482666655	250002
46	1666	10982.871482666655	0
46	1693	10990.071482666655	0
46	1699	10997.271482666655	0
46	1705	11004.471482666655	0
47	101	28.204816	1
47	441	132.738149333332	0
48	227	67.938149333333	1
48	336	94.071482666666	2
48	375	106.604815999999	3
48	441	132.738149333332	0
48	559	532.471482666665	0
48	614	932.204815999998	0
48	999	3780.471482666661	0
48	1395	7777.804815999991	0
48	1429	8177.538149333324	0
54	4	1	0
54	10	4	0
54	15	10	0
54	54	22	0
54	97	28.204816	0
54	101	28.204816	0
54	108	31.204816	0
54	124	37.204816	0
54	156	41.804816	0
54	161	49.204816	0
54	193	55.404816	0
54	228	73.204816	0
54	282	81.538149333333	0
54	393	120.204815999999	0
54	398	121.204816	0
54	559	532.471482666665	0
54	559	532.471482666665	0
54	614	932.204815999998	0
54	614	932.204815999998	0
54	669	1331.938149333331	0
54	713	1731.671482666664	0
54	724	1744.204815999997	0
54	768	2143.93814933333	0
54	790	2156.471482666663	0
54	834	2556.204815999996	0
54	845	2568.738149333329	0
54	867	2581.271482666662	0
54	922	2981.004815999995	0
54	966	3380.738149333328	0
54	999	3780.471482666661	0
54	999	3780.471482666661	0
54	1054	4180.204815999994	0
54	1098	4579.938149333327	0
54	1131	4979.67148266666	0
54	1175	5379.404815999993	0
54	1219	5779.138149333326	0
54	1252	6178.871482666659	0
54	1296	6578.604815999992	0
54	1331	6978.338149333325	0
54	1363	7378.071482666658	0
54	1395	7777.804815999991	0
54	1395	7777.804815999991	0
54	1429	8177.538149333324	0
54	1429	8177.538149333324	0
54	1463	8577.271482666657	0
54	1495	8977.00481599999	0
54	1527	9376.738149333323	0
54	1559	9776.471482666656	0
54	1591	10176.204815999989	0
54	1623	10575.938149333322	0
54	1655	10975.671482666655	0
56	559	532.471482666665	1452
56	614	932.204815999998	1452
56	999	3780.471482666661	1452
56	1395	7777.804815999991	1452
56	1429	8177.538149333324	1452
vector 119  TestNetwork.client.tcp  7_tcpRcvQueueBytes  ETV
vector 107  TestNetwork.client.tcp  "7_advertised window"  ETV
vector 106  TestNetwork.client.tcp  "7_receive window"  ETV
vector 109  TestNetwork.client.tcp  "7_sent ack"  ETV
69	1347	6990.873858666658	250002
69	1379	7390.607191999991	250002
69	1413	7790.340525333324	250002
69	1447	8190.073858666657	250002
69	1479	8589.80719199999	250002
69	1511	8989.540525333323	250002
69	1543	9389.273858666656	250002
69	1575	9789.007191999989	250002
69	1607	10188.740525333322	250002
69	1639	10588.473858666655	250002
69	1677	10988.207191999988	250002
69	1740	11018.073890666655	2751117870
70	1347	6990.873858666658	3654959
70	1379	7390.607191999991	3654959
70	1413	7790.340525333324	3656411
70	1447	8190.073858666657	3657863
70	1479	8589.80719199999	3657863
70	1511	8989.540525333323	3657863
70	1543	9389.273858666656	3657863
70	1575	9789.007191999989	3657863
70	1607	10188.740525333322	3657863
70	1639	10588.473858666655	3657863
70	1677	10988.207191999988	3657863
70	1740	11018.073890666655	0
vector 155  TestNetwork.server.tcp  "8_advertised window"  ETV
vector 153  TestNetwork.server.tcp  "8_send window"  ETV
vector 167  TestNetwork.server.tcp  8_tcpRcvQueueBytes  ETV
vector 154  TestNetwork.server.tcp  "8_receive window"  ETV
vector 157  TestNetwork.server.tcp  "8_sent ack"  ETV
vector 158  TestNetwork.server.tcp  "8_rcvd seq"  ETV
vector 159  TestNetwork.server.tcp  "8_rcvd ack"  ETV
vector 110  TestNetwork.client.tcp  "7_rcvd seq"  ETV
vector 111  TestNetwork.client.tcp  "7_rcvd ack"  ETV
vector 105  TestNetwork.client.tcp  "7_send window"  ETV
vector 108  TestNetwork.client.tcp  "7_sent seq"  ETV
vector 112  TestNetwork.client.tcp  "7_unacked bytes"  ETV
vector 128  TestNetwork.client.tcp  numRTOs  ETV
vector 123  TestNetwork.client.tcp  ssthresh  ETV
vector 122  TestNetwork.client.tcp  cwnd  ETV
vector 160  TestNetwork.server.tcp  "8_unacked bytes"  ETV
vector 81  TestNetwork.server.tcp  cwnd  ETV
vector 161  TestNetwork.server.tcp  "8_rcvd dupAcks"  ETV
vector 169  TestNetwork.server.tcp  8_goodput  ETV
vector 156  TestNetwork.server.tcp  "8_sent seq"  ETV
vector 87  TestNetwork.server.tcp  numRTOs  ETV
vector 82  TestNetwork.server.tcp  ssthresh  ETV
vector 113  TestNetwork.client.tcp  "7_rcvd dupAcks"  ETV
vector 121  TestNetwork.client.tcp  7_goodput  ETV
0	14	4	1
0	19	10	2
0	20	14.6	1
0	58	22	2
0	70	28.2	1
0	104	28.204816	2
0	107	28.204816	3
0	112	31.204816	4
0	128	37.204816	5
0	129	41.8	4
0	160	41.804816	5
0	165	49.204816	6
0	166	55.4	5
0	197	55.404816	6
0	209	67.933333333333	5
0	232	73.204816	6
0	233	80.733333333333	5
0	286	81.538149333333	6
0	309	93.533333333333	5
0	348	106.333333333333	4
0	376	118.866666666666	3
0	397	120.204815999999	4
0	402	121.204816	5
0	414	131.666666666666	4
0	442	144.199999999999	3
0	454	156.999999999999	2
0	476	169.533333333332	1
0	499	182.066666666665	0
0	728	1744.204815999997	1
0	729	1744.204815999997	0
0	794	2156.471482666663	1
0	795	2156.471482666663	0
0	849	2568.738149333329	1
0	850	2568.738149333329	0
0	871	2581.271482666662	1
0	872	2581.271482666662	0
0	1717	11007.471482666655	1
0	1728	11013.471482666655	2
0	1729	11018.071482666655	1
0	1772	11025.471482666655	2
0	1790	11031.671482666655	1
0	1835	11045.271482666655	0
0	1867	11049.471482666655	1
0	1874	11058.871482666655	0
0	1919	11068.471482666655	1
0	1922	11068.471482666655	2
0	1927	11071.471482666655	3
0	1928	11072.471482666655	2
0	1954	11077.471482666655	3
0	1964	11082.071482666655	4
0	1965	11085.004815999988	3
0	1982	11089.471482666655	4
0	1992	11095.671482666655	5
0	1993	11097.804815999988	4
0	2055	11110.604815999988	3
0	2081	11113.471482666655	4
0	2102	11121.804815999988	5
0	2103	11123.404815999988	4
0	2131	11135.938149333321	3
0	2160	11148.738149333321	2
0	2191	11160.471482666654	3